Title: Integrator with squarewave input
Date: Thu Jan  8 11:24:56  2009
Plotname: Transient Analysis
Flags: real
No. Variables: 6
No. Points: 833
Variables:
	0	time	time
	1	V(1)	voltage
	2	V(2)	voltage
	3	V(3)	voltage
	4	e#branch	current
	5	vin#branch	current
Values:
 0	0.000000000000000e+00
	0.000000000000000e+00
	0.000000000000000e+00
	0.000000000000000e+00
	0.000000000000000e+00
	0.000000000000000e+00

 1	5.000000000000000e-09
	9.800000000000000e-01
	1.000006510218472e-04
	-1.000006510218473e+00
	4.899499996744169e-07
	-4.899499996744890e-07

 2	1.000000000000000e-08
	9.600000000000000e-01
	1.000110836741137e-04
	-1.000110836741137e+00
	4.799499944582331e-07
	-4.799499944581629e-07

 3	2.000000000000000e-08
	9.200000000000000e-01
	1.000315142392898e-04
	-1.000315142392898e+00
	4.599499842430310e-07
	-4.599499842428803e-07

 4	4.000000000000000e-08
	8.400000000000000e-01
	1.000697669335577e-04
	-1.000697669335577e+00
	4.199499651167495e-07
	-4.199499651165332e-07

 5	8.000000000000000e-08
	6.799999999999999e-01
	1.001358385783234e-04
	-1.001358385783234e+00
	3.399499320808138e-07
	-3.399499320807108e-07

 6	1.600000000000000e-07
	3.600000000000000e-01
	1.002262468973102e-04
	-1.002262468973102e+00
	1.799498868765274e-07
	-1.799498868765513e-07

 7	3.200000000000000e-07
	-2.800000000000000e-01
	1.002401236893926e-04
	-1.002401236893926e+00
	-1.400501200618166e-07
	1.400501200618447e-07

 8	5.000000000000000e-07
	-1.000000000000000e+00
	9.998967477627982e-05
	-9.998967477627982e-01
	-5.000499948374234e-07
	5.000499948373882e-07

 9	5.319999999999999e-07
	-1.000000000000000e+00
	9.992010956444558e-05
	-9.992010956444558e-01
	-5.000499600546874e-07
	5.000499600547822e-07

 10	5.960000000000000e-07
	-1.000000000000000e+00
	9.978097915045474e-05
	-9.978097915045474e-01
	-5.000498904894408e-07
	5.000498904895752e-07

 11	7.240000000000000e-07
	-1.000000000000000e+00
	9.950271838053900e-05
	-9.950271838053900e-01
	-5.000497513592060e-07
	5.000497513591903e-07

 12	9.799999999999999e-07
	-1.000000000000000e+00
	9.894619707297149e-05
	-9.894619707297149e-01
	-5.000494730985941e-07
	5.000494730985365e-07

 13	1.480000000000000e-06
	-1.000000000000000e+00
	9.785924228723293e-05
	-9.785924228723293e-01
	-5.000489296211517e-07
	5.000489296211436e-07

 14	1.980000000000000e-06
	-1.000000000000000e+00
	9.677228868284828e-05
	-9.677228868284828e-01
	-5.000483861443391e-07
	5.000483861443414e-07

 15	2.480000000000000e-06
	-1.000000000000000e+00
	9.568533625981618e-05
	-9.568533625981618e-01
	-5.000478426681296e-07
	5.000478426681298e-07

 16	2.979999999999999e-06
	-1.000000000000000e+00
	9.459838501813533e-05
	-9.459838501813532e-01
	-5.000472991925099e-07
	5.000472991925090e-07

 17	3.479999999999999e-06
	-1.000000000000000e+00
	9.351143495780441e-05
	-9.351143495780442e-01
	-5.000467557174663e-07
	5.000467557174789e-07

 18	3.979999999999999e-06
	-1.000000000000000e+00
	9.242448607882222e-05
	-9.242448607882222e-01
	-5.000462122430399e-07
	5.000462122430394e-07

 19	4.479999999999999e-06
	-1.000000000000000e+00
	9.133753838118742e-05
	-9.133753838118742e-01
	-5.000456687691899e-07
	5.000456687691906e-07

 20	4.980000000000000e-06
	-1.000000000000000e+00
	9.025059186489872e-05
	-9.025059186489872e-01
	-5.000451252959302e-07
	5.000451252959324e-07

 21	5.480000000000000e-06
	-1.000000000000000e+00
	8.916364652995483e-05
	-8.916364652995483e-01
	-5.000445818232743e-07
	5.000445818232649e-07

 22	5.980000000000000e-06
	-1.000000000000000e+00
	8.807670237635451e-05
	-8.807670237635451e-01
	-5.000440383511817e-07
	5.000440383511882e-07

 23	6.480000000000001e-06
	-1.000000000000000e+00
	8.698975940409644e-05
	-8.698975940409645e-01
	-5.000434948796933e-07
	5.000434948797020e-07

 24	6.980000000000001e-06
	-1.000000000000000e+00
	8.590281761317937e-05
	-8.590281761317937e-01
	-5.000429514088089e-07
	5.000429514088066e-07

 25	7.480000000000001e-06
	-1.000000000000000e+00
	8.481587700360196e-05
	-8.481587700360196e-01
	-5.000424079385019e-07
	5.000424079385018e-07

 26	7.980000000000002e-06
	-1.000000000000000e+00
	8.372893757536294e-05
	-8.372893757536294e-01
	-5.000418644687857e-07
	5.000418644687876e-07

 27	8.480000000000002e-06
	-1.000000000000000e+00
	8.264199932846106e-05
	-8.264199932846106e-01
	-5.000413209996606e-07
	5.000413209996642e-07

 28	8.980000000000002e-06
	-1.000000000000000e+00
	8.155506226289502e-05
	-8.155506226289502e-01
	-5.000407775311266e-07
	5.000407775311315e-07

 29	9.480000000000002e-06
	-1.000000000000000e+00
	8.046812637866356e-05
	-8.046812637866356e-01
	-5.000402340631838e-07
	5.000402340631893e-07

 30	9.980000000000003e-06
	-1.000000000000000e+00
	7.938119167576538e-05
	-7.938119167576538e-01
	-5.000396905958324e-07
	5.000396905958379e-07

 31	1.048000000000000e-05
	-1.000000000000000e+00
	7.829425815419916e-05
	-7.829425815419916e-01
	-5.000391471290725e-07
	5.000391471290771e-07

 32	1.098000000000000e-05
	-1.000000000000000e+00
	7.720732581396364e-05
	-7.720732581396363e-01
	-5.000386036629177e-07
	5.000386036629070e-07

 33	1.148000000000000e-05
	-1.000000000000000e+00
	7.612039465505755e-05
	-7.612039465505754e-01
	-5.000380601973275e-07
	5.000380601973275e-07

 34	1.198000000000000e-05
	-1.000000000000000e+00
	7.503346467747958e-05
	-7.503346467747959e-01
	-5.000375167323428e-07
	5.000375167323388e-07

 35	1.248000000000000e-05
	-1.000000000000000e+00
	7.394653588122850e-05
	-7.394653588122849e-01
	-5.000369732679499e-07
	5.000369732679406e-07

 36	1.298000000000000e-05
	-1.000000000000000e+00
	7.285960826630293e-05
	-7.285960826630293e-01
	-5.000364298041357e-07
	5.000364298041331e-07

 37	1.348000000000000e-05
	-1.000000000000000e+00
	7.177268183270167e-05
	-7.177268183270167e-01
	-5.000358863409271e-07
	5.000358863409163e-07

 38	1.398000000000001e-05
	-1.000000000000000e+00
	7.068575658042341e-05
	-7.068575658042341e-01
	-5.000353428782838e-07
	5.000353428782902e-07

 39	1.448000000000001e-05
	-1.000000000000000e+00
	6.959883250946689e-05
	-6.959883250946689e-01
	-5.000347994162464e-07
	5.000347994162548e-07

 40	1.498000000000001e-05
	-1.000000000000000e+00
	6.851190961983079e-05
	-6.851190961983079e-01
	-5.000342559548152e-07
	5.000342559548099e-07

 41	1.548000000000000e-05
	-1.000000000000000e+00
	6.742498791151385e-05
	-6.742498791151385e-01
	-5.000337124939630e-07
	5.000337124939557e-07

 42	1.598000000000000e-05
	-1.000000000000000e+00
	6.633806738451477e-05
	-6.633806738451478e-01
	-5.000331690336901e-07
	5.000331690336922e-07

 43	1.648000000000000e-05
	-1.000000000000000e+00
	6.525114803883229e-05
	-6.525114803883230e-01
	-5.000326255740236e-07
	5.000326255740194e-07

 44	1.698000000000000e-05
	-1.000000000000000e+00
	6.416422987446510e-05
	-6.416422987446511e-01
	-5.000320821149299e-07
	5.000320821149372e-07

 45	1.748000000000000e-05
	-1.000000000000000e+00
	6.307731289141192e-05
	-6.307731289141192e-01
	-5.000315386564495e-07
	5.000315386564457e-07

 46	1.798000000000000e-05
	-1.000000000000000e+00
	6.199039708967147e-05
	-6.199039708967147e-01
	-5.000309951985422e-07
	5.000309951985448e-07

 47	1.848000000000000e-05
	-1.000000000000000e+00
	6.090348246924245e-05
	-6.090348246924245e-01
	-5.000304517412349e-07
	5.000304517412346e-07

 48	1.897999999999999e-05
	-1.000000000000000e+00
	5.981656903012360e-05
	-5.981656903012360e-01
	-5.000299082845144e-07
	5.000299082845150e-07

 49	1.947999999999999e-05
	-1.000000000000000e+00
	5.872965677231362e-05
	-5.872965677231362e-01
	-5.000293648283875e-07
	5.000293648283861e-07

 50	1.997999999999999e-05
	-1.000000000000000e+00
	5.764274569581125e-05
	-5.764274569581125e-01
	-5.000288213728543e-07
	5.000288213728478e-07

 51	2.047999999999999e-05
	-1.000000000000000e+00
	5.655583580061518e-05
	-5.655583580061518e-01
	-5.000282779179014e-07
	5.000282779179003e-07

 52	2.097999999999999e-05
	-1.000000000000000e+00
	5.546892708672415e-05
	-5.546892708672415e-01
	-5.000277344635357e-07
	5.000277344635433e-07

 53	2.147999999999999e-05
	-1.000000000000000e+00
	5.438201955413686e-05
	-5.438201955413685e-01
	-5.000271910097844e-07
	5.000271910097770e-07

 54	2.197999999999999e-05
	-1.000000000000000e+00
	5.329511320285200e-05
	-5.329511320285200e-01
	-5.000266475566070e-07
	5.000266475566014e-07

 55	2.247999999999998e-05
	-1.000000000000000e+00
	5.220820803286833e-05
	-5.220820803286833e-01
	-5.000261041040171e-07
	5.000261041040164e-07

 56	2.297999999999998e-05
	-1.000000000000000e+00
	5.112130404418456e-05
	-5.112130404418456e-01
	-5.000255606520217e-07
	5.000255606520221e-07

 57	2.347999999999998e-05
	-1.000000000000000e+00
	5.003440123679940e-05
	-5.003440123679940e-01
	-5.000250172006140e-07
	5.000250172006184e-07

 58	2.397999999999998e-05
	-1.000000000000000e+00
	4.894749961071158e-05
	-4.894749961071158e-01
	-5.000244737498079e-07
	5.000244737498053e-07

 59	2.447999999999998e-05
	-1.000000000000000e+00
	4.786059916591978e-05
	-4.786059916591978e-01
	-5.000239302995828e-07
	5.000239302995829e-07

 60	2.497999999999998e-05
	-1.000000000000000e+00
	4.677369990242273e-05
	-4.677369990242273e-01
	-5.000233868499528e-07
	5.000233868499512e-07

 61	2.547999999999998e-05
	-1.000000000000000e+00
	4.568680182021914e-05
	-4.568680182021914e-01
	-5.000228434009110e-07
	5.000228434009101e-07

 62	2.597999999999997e-05
	-1.000000000000000e+00
	4.459990491930775e-05
	-4.459990491930775e-01
	-5.000222999524575e-07
	5.000222999524596e-07

 63	2.647999999999997e-05
	-1.000000000000000e+00
	4.351300919968727e-05
	-4.351300919968727e-01
	-5.000217565045994e-07
	5.000217565045998e-07

 64	2.697999999999997e-05
	-1.000000000000000e+00
	4.242611466135640e-05
	-4.242611466135640e-01
	-5.000212130573298e-07
	5.000212130573306e-07

 65	2.747999999999997e-05
	-1.000000000000000e+00
	4.133922130431388e-05
	-4.133922130431388e-01
	-5.000206696106489e-07
	5.000206696106521e-07

 66	2.797999999999997e-05
	-1.000000000000000e+00
	4.025232912855840e-05
	-4.025232912855840e-01
	-5.000201261645637e-07
	5.000201261645642e-07

 67	2.847999999999997e-05
	-1.000000000000000e+00
	3.916543813408869e-05
	-3.916543813408869e-01
	-5.000195827190606e-07
	5.000195827190670e-07

 68	2.897999999999997e-05
	-1.000000000000000e+00
	3.807854832090348e-05
	-3.807854832090348e-01
	-5.000190392741602e-07
	5.000190392741604e-07

 69	2.947999999999997e-05
	-1.000000000000000e+00
	3.699165968900146e-05
	-3.699165968900145e-01
	-5.000184958298490e-07
	5.000184958298445e-07

 70	2.997999999999996e-05
	-1.000000000000000e+00
	3.590477223838134e-05
	-3.590477223838133e-01
	-5.000179523861204e-07
	5.000179523861192e-07

 71	3.047999999999996e-05
	-1.000000000000000e+00
	3.481788596904183e-05
	-3.481788596904183e-01
	-5.000174089429878e-07
	5.000174089429845e-07

 72	3.097999999999996e-05
	-1.000000000000000e+00
	3.373100088098172e-05
	-3.373100088098172e-01
	-5.000168655004381e-07
	5.000168655004405e-07

 73	3.147999999999996e-05
	-1.000000000000000e+00
	3.264411697419966e-05
	-3.264411697419966e-01
	-5.000163220584849e-07
	5.000163220584871e-07

 74	3.197999999999996e-05
	-1.000000000000000e+00
	3.155723424869437e-05
	-3.155723424869437e-01
	-5.000157786171248e-07
	5.000157786171243e-07

 75	3.247999999999996e-05
	-1.000000000000000e+00
	3.047035270446458e-05
	-3.047035270446458e-01
	-5.000152351763512e-07
	5.000152351763522e-07

 76	3.297999999999996e-05
	-1.000000000000000e+00
	2.938347234150900e-05
	-2.938347234150900e-01
	-5.000146917361711e-07
	5.000146917361707e-07

 77	3.347999999999996e-05
	-1.000000000000000e+00
	2.829659315982636e-05
	-2.829659315982636e-01
	-5.000141482965776e-07
	5.000141482965799e-07

 78	3.397999999999996e-05
	-1.000000000000000e+00
	2.720971515941536e-05
	-2.720971515941536e-01
	-5.000136048575779e-07
	5.000136048575797e-07

 79	3.447999999999995e-05
	-1.000000000000000e+00
	2.612283834027472e-05
	-2.612283834027472e-01
	-5.000130614191685e-07
	5.000130614191702e-07

 80	3.497999999999995e-05
	-1.000000000000000e+00
	2.503596270240315e-05
	-2.503596270240315e-01
	-5.000125179813463e-07
	5.000125179813512e-07

 81	3.547999999999995e-05
	-1.000000000000000e+00
	2.394908824579939e-05
	-2.394908824579939e-01
	-5.000119745441214e-07
	5.000119745441229e-07

 82	3.597999999999995e-05
	-1.000000000000000e+00
	2.286221497046214e-05
	-2.286221497046214e-01
	-5.000114311074839e-07
	5.000114311074852e-07

 83	3.647999999999995e-05
	-1.000000000000000e+00
	2.177534287639011e-05
	-2.177534287639011e-01
	-5.000108876714372e-07
	5.000108876714381e-07

 84	3.697999999999995e-05
	-1.000000000000000e+00
	2.068847196358203e-05
	-2.068847196358203e-01
	-5.000103442359780e-07
	5.000103442359818e-07

 85	3.747999999999995e-05
	-1.000000000000000e+00
	1.960160223203660e-05
	-1.960160223203660e-01
	-5.000098008011133e-07
	5.000098008011160e-07

 86	3.797999999999994e-05
	-1.000000000000000e+00
	1.851473368175256e-05
	-1.851473368175256e-01
	-5.000092573668365e-07
	5.000092573668409e-07

 87	3.847999999999994e-05
	-1.000000000000000e+00
	1.742786631272860e-05
	-1.742786631272860e-01
	-5.000087139331578e-07
	5.000087139331563e-07

 88	3.897999999999994e-05
	-1.000000000000000e+00
	1.634100012496345e-05
	-1.634100012496345e-01
	-5.000081705000621e-07
	5.000081705000625e-07

 89	3.947999999999994e-05
	-1.000000000000000e+00
	1.525413511845582e-05
	-1.525413511845582e-01
	-5.000076270675596e-07
	5.000076270675593e-07

 90	3.997999999999994e-05
	-1.000000000000000e+00
	1.416727129320442e-05
	-1.416727129320442e-01
	-5.000070836356470e-07
	5.000070836356466e-07

 91	4.047999999999994e-05
	-1.000000000000000e+00
	1.308040864920798e-05
	-1.308040864920798e-01
	-5.000065402043247e-07
	5.000065402043246e-07

 92	4.097999999999994e-05
	-1.000000000000000e+00
	1.199354718646521e-05
	-1.199354718646521e-01
	-5.000059967735940e-07
	5.000059967735932e-07

 93	4.147999999999993e-05
	-1.000000000000000e+00
	1.090668690497484e-05
	-1.090668690497484e-01
	-5.000054533434522e-07
	5.000054533434524e-07

 94	4.197999999999993e-05
	-1.000000000000000e+00
	9.819827804735558e-06
	-9.819827804735558e-02
	-5.000049099139025e-07
	5.000049099139024e-07

 95	4.247999999999993e-05
	-1.000000000000000e+00
	8.732969885746100e-06
	-8.732969885746100e-02
	-5.000043664849433e-07
	5.000043664849428e-07

 96	4.297999999999993e-05
	-1.000000000000000e+00
	7.646113148005182e-06
	-7.646113148005182e-02
	-5.000038230565740e-07
	5.000038230565739e-07

 97	4.347999999999993e-05
	-1.000000000000000e+00
	6.559257591511517e-06
	-6.559257591511518e-02
	-5.000032796287956e-07
	5.000032796287958e-07

 98	4.397999999999993e-05
	-1.000000000000000e+00
	5.472403216263820e-06
	-5.472403216263819e-02
	-5.000027362016088e-07
	5.000027362016081e-07

 99	4.447999999999993e-05
	-1.000000000000000e+00
	4.385550022260807e-06
	-4.385550022260807e-02
	-5.000021927750115e-07
	5.000021927750111e-07

 100	4.497999999999993e-05
	-1.000000000000000e+00
	3.298698009501196e-06
	-3.298698009501196e-02
	-5.000016493490048e-07
	5.000016493490047e-07

 101	4.547999999999992e-05
	-1.000000000000000e+00
	2.211847177983703e-06
	-2.211847177983703e-02
	-5.000011059235891e-07
	5.000011059235890e-07

 102	4.597999999999992e-05
	-1.000000000000000e+00
	1.124997527707042e-06
	-1.124997527707042e-02
	-5.000005624987638e-07
	5.000005624987638e-07

 103	4.647999999999992e-05
	-1.000000000000000e+00
	3.814905866993147e-08
	-3.814905866993146e-04
	-5.000000190745293e-07
	5.000000190745293e-07

 104	4.697999999999992e-05
	-1.000000000000000e+00
	-1.048698229128914e-06
	1.048698229128914e-02
	-4.999994756508854e-07
	4.999994756508854e-07

 105	4.747999999999992e-05
	-1.000000000000000e+00
	-2.135544335690777e-06
	2.135544335690777e-02
	-4.999989322278319e-07
	4.999989322278321e-07

 106	4.797999999999992e-05
	-1.000000000000000e+00
	-3.222389261016941e-06
	3.222389261016941e-02
	-4.999983888053691e-07
	4.999983888053695e-07

 107	4.847999999999992e-05
	-1.000000000000000e+00
	-4.309233005108692e-06
	4.309233005108692e-02
	-4.999978453834981e-07
	4.999978453834974e-07

 108	4.897999999999991e-05
	-1.000000000000000e+00
	-5.396075567967315e-06
	5.396075567967315e-02
	-4.999973019622170e-07
	4.999973019622160e-07

 109	4.947999999999991e-05
	-1.000000000000000e+00
	-6.482916949594091e-06
	6.482916949594091e-02
	-4.999967585415246e-07
	4.999967585415252e-07

 110	4.997999999999991e-05
	-1.000000000000000e+00
	-7.569757149990301e-06
	7.569757149990301e-02
	-4.999962151214256e-07
	4.999962151214249e-07

 111	5.047999999999991e-05
	-1.000000000000000e+00
	-8.656596169157235e-06
	8.656596169157235e-02
	-4.999956717019148e-07
	4.999956717019154e-07

 112	5.097999999999991e-05
	-1.000000000000000e+00
	-9.743434007096170e-06
	9.743434007096169e-02
	-4.999951282829964e-07
	4.999951282829964e-07

 113	5.147999999999991e-05
	-1.000000000000000e+00
	-1.083027066380840e-05
	1.083027066380840e-01
	-4.999945848646675e-07
	4.999945848646681e-07

 114	5.197999999999991e-05
	-1.000000000000000e+00
	-1.191710613929520e-05
	1.191710613929520e-01
	-4.999940414469313e-07
	4.999940414469303e-07

 115	5.247999999999990e-05
	-1.000000000000000e+00
	-1.300394043355786e-05
	1.300394043355786e-01
	-4.999934980297831e-07
	4.999934980297832e-07

 116	5.297999999999990e-05
	-1.000000000000000e+00
	-1.409077354659765e-05
	1.409077354659765e-01
	-4.999929546132278e-07
	4.999929546132267e-07

 117	5.347999999999990e-05
	-1.000000000000000e+00
	-1.517760547841588e-05
	1.517760547841588e-01
	-4.999924111972623e-07
	4.999924111972608e-07

 118	5.397999999999990e-05
	-1.000000000000000e+00
	-1.626443622901381e-05
	1.626443622901381e-01
	-4.999918677818850e-07
	4.999918677818854e-07

 119	5.447999999999990e-05
	-1.000000000000000e+00
	-1.735126579839273e-05
	1.735126579839273e-01
	-4.999913243670995e-07
	4.999913243671007e-07

 120	5.497999999999990e-05
	-1.000000000000000e+00
	-1.843809418655392e-05
	1.843809418655392e-01
	-4.999907809529058e-07
	4.999907809529067e-07

 121	5.547999999999990e-05
	-1.000000000000000e+00
	-1.952492139349867e-05
	1.952492139349867e-01
	-4.999902375393006e-07
	4.999902375393033e-07

 122	5.597999999999989e-05
	-1.000000000000000e+00
	-2.061174741922826e-05
	2.061174741922826e-01
	-4.999896941262876e-07
	4.999896941262904e-07

 123	5.647999999999989e-05
	-1.000000000000000e+00
	-2.169857226374398e-05
	2.169857226374398e-01
	-4.999891507138667e-07
	4.999891507138682e-07

 124	5.697999999999989e-05
	-1.000000000000000e+00
	-2.278539592704711e-05
	2.278539592704711e-01
	-4.999886073020347e-07
	4.999886073020364e-07

 125	5.747999999999989e-05
	-1.000000000000000e+00
	-2.387221840913893e-05
	2.387221840913893e-01
	-4.999880638907951e-07
	4.999880638907954e-07

 126	5.797999999999989e-05
	-1.000000000000000e+00
	-2.495903971002074e-05
	2.495903971002074e-01
	-4.999875204801447e-07
	4.999875204801450e-07

 127	5.847999999999989e-05
	-1.000000000000000e+00
	-2.604585982969381e-05
	2.604585982969381e-01
	-4.999869770700870e-07
	4.999869770700852e-07

 128	5.897999999999989e-05
	-1.000000000000000e+00
	-2.713267876815942e-05
	2.713267876815942e-01
	-4.999864336606152e-07
	4.999864336606159e-07

 129	5.947999999999988e-05
	-1.000000000000000e+00
	-2.821949652541886e-05
	2.821949652541886e-01
	-4.999858902517363e-07
	4.999858902517373e-07

 130	5.997999999999988e-05
	-1.000000000000000e+00
	-2.930631310147342e-05
	2.930631310147341e-01
	-4.999853468434437e-07
	4.999853468434492e-07

 131	6.047999999999988e-05
	-1.000000000000000e+00
	-3.039312849632436e-05
	3.039312849632437e-01
	-4.999848034357510e-07
	4.999848034357518e-07

 132	6.097999999999988e-05
	-1.000000000000000e+00
	-3.147994270997301e-05
	3.147994270997301e-01
	-4.999842600286414e-07
	4.999842600286450e-07

 133	6.147999999999988e-05
	-1.000000000000000e+00
	-3.256675574242060e-05
	3.256675574242060e-01
	-4.999837166221251e-07
	4.999837166221287e-07

 134	6.197999999999988e-05
	-1.000000000000000e+00
	-3.365356759366844e-05
	3.365356759366844e-01
	-4.999831732162023e-07
	4.999831732162032e-07

 135	6.247999999999988e-05
	-1.000000000000000e+00
	-3.474037826371782e-05
	3.474037826371782e-01
	-4.999826298108698e-07
	4.999826298108681e-07

 136	6.297999999999987e-05
	-1.000000000000000e+00
	-3.582718775257002e-05
	3.582718775257002e-01
	-4.999820864061208e-07
	4.999820864061237e-07

 137	6.347999999999987e-05
	-1.000000000000000e+00
	-3.691399606022631e-05
	3.691399606022631e-01
	-4.999815430019690e-07
	4.999815430019698e-07

 138	6.397999999999987e-05
	-1.000000000000000e+00
	-3.800080318668798e-05
	3.800080318668799e-01
	-4.999809995984078e-07
	4.999809995984066e-07

 139	6.447999999999987e-05
	-1.000000000000000e+00
	-3.908760913195634e-05
	3.908760913195634e-01
	-4.999804561954305e-07
	4.999804561954340e-07

 140	6.497999999999987e-05
	-1.000000000000000e+00
	-4.017441389603263e-05
	4.017441389603263e-01
	-4.999799127930507e-07
	4.999799127930519e-07

 141	6.547999999999987e-05
	-1.000000000000000e+00
	-4.126121747891816e-05
	4.126121747891816e-01
	-4.999793693912620e-07
	4.999793693912605e-07

 142	6.597999999999987e-05
	-1.000000000000000e+00
	-4.234801988061421e-05
	4.234801988061421e-01
	-4.999788259900575e-07
	4.999788259900597e-07

 143	6.647999999999986e-05
	-1.000000000000000e+00
	-4.343482110112208e-05
	4.343482110112208e-01
	-4.999782825894509e-07
	4.999782825894495e-07

 144	6.697999999999986e-05
	-1.000000000000000e+00
	-4.452162114044302e-05
	4.452162114044302e-01
	-4.999777391894288e-07
	4.999777391894297e-07

 145	6.747999999999986e-05
	-1.000000000000000e+00
	-4.560841999857833e-05
	4.560841999857833e-01
	-4.999771957899981e-07
	4.999771957900007e-07

 146	6.797999999999986e-05
	-1.000000000000000e+00
	-4.669521767552928e-05
	4.669521767552928e-01
	-4.999766523911590e-07
	4.999766523911622e-07

 147	6.847999999999986e-05
	-1.000000000000000e+00
	-4.778201417129719e-05
	4.778201417129719e-01
	-4.999761089929114e-07
	4.999761089929143e-07

 148	6.897999999999986e-05
	-1.000000000000000e+00
	-4.886880948588331e-05
	4.886880948588331e-01
	-4.999755655952555e-07
	4.999755655952570e-07

 149	6.947999999999986e-05
	-1.000000000000000e+00
	-4.995560361928895e-05
	4.995560361928895e-01
	-4.999750221981916e-07
	4.999750221981904e-07

 150	6.997999999999986e-05
	-1.000000000000000e+00
	-5.104239657151538e-05
	5.104239657151538e-01
	-4.999744788017197e-07
	4.999744788017142e-07

 151	7.047999999999985e-05
	-1.000000000000000e+00
	-5.212918834256387e-05
	5.212918834256387e-01
	-4.999739354058264e-07
	4.999739354058287e-07

 152	7.097999999999985e-05
	-1.000000000000000e+00
	-5.321597893243570e-05
	5.321597893243570e-01
	-4.999733920105319e-07
	4.999733920105337e-07

 153	7.147999999999985e-05
	-1.000000000000000e+00
	-5.430276834113220e-05
	5.430276834113220e-01
	-4.999728486158366e-07
	4.999728486158294e-07

 154	7.197999999999985e-05
	-1.000000000000000e+00
	-5.538955656865462e-05
	5.538955656865462e-01
	-4.999723052217067e-07
	4.999723052217156e-07

 155	7.247999999999985e-05
	-1.000000000000000e+00
	-5.647634361500423e-05
	5.647634361500423e-01
	-4.999717618281966e-07
	4.999717618281924e-07

 156	7.297999999999985e-05
	-1.000000000000000e+00
	-5.756312948018236e-05
	5.756312948018236e-01
	-4.999712184352654e-07
	4.999712184352599e-07

 157	7.347999999999985e-05
	-1.000000000000000e+00
	-5.864991416419025e-05
	5.864991416419025e-01
	-4.999706750429203e-07
	4.999706750429179e-07

 158	7.397999999999984e-05
	-1.000000000000000e+00
	-5.973669766702920e-05
	5.973669766702920e-01
	-4.999701316511683e-07
	4.999701316511665e-07

 159	7.447999999999984e-05
	-1.000000000000000e+00
	-6.082347998870050e-05
	6.082347998870049e-01
	-4.999695882600024e-07
	4.999695882600056e-07

 160	7.497999999999984e-05
	-1.000000000000000e+00
	-6.191026112920540e-05
	6.191026112920540e-01
	-4.999690448694365e-07
	4.999690448694354e-07

 161	7.547999999999984e-05
	-1.000000000000000e+00
	-6.299704108854524e-05
	6.299704108854524e-01
	-4.999685014794570e-07
	4.999685014794557e-07

 162	7.597999999999984e-05
	-1.000000000000000e+00
	-6.408381986672127e-05
	6.408381986672127e-01
	-4.999679580900710e-07
	4.999679580900666e-07

 163	7.647999999999984e-05
	-1.000000000000000e+00
	-6.517059746373475e-05
	6.517059746373475e-01
	-4.999674147012583e-07
	4.999674147012681e-07

 164	7.697999999999984e-05
	-1.000000000000000e+00
	-6.625737387958697e-05
	6.625737387958697e-01
	-4.999668713130527e-07
	4.999668713130602e-07

 165	7.747999999999983e-05
	-1.000000000000000e+00
	-6.734414911427924e-05
	6.734414911427924e-01
	-4.999663279254272e-07
	4.999663279254428e-07

 166	7.797999999999983e-05
	-1.000000000000000e+00
	-6.843092316781284e-05
	6.843092316781284e-01
	-4.999657845384092e-07
	4.999657845384160e-07

 167	7.847999999999983e-05
	-1.000000000000000e+00
	-6.951769604018906e-05
	6.951769604018906e-01
	-4.999652411519718e-07
	4.999652411519798e-07

 168	7.897999999999983e-05
	-1.000000000000000e+00
	-7.060446773140923e-05
	7.060446773140923e-01
	-4.999646977661283e-07
	4.999646977661342e-07

 169	7.947999999999983e-05
	-1.000000000000000e+00
	-7.169123824147455e-05
	7.169123824147455e-01
	-4.999641543808791e-07
	4.999641543808792e-07

 170	7.997999999999983e-05
	-1.000000000000000e+00
	-7.277800757038633e-05
	7.277800757038634e-01
	-4.999636109962107e-07
	4.999636109962148e-07

 171	8.047999999999983e-05
	-1.000000000000000e+00
	-7.386477571814590e-05
	7.386477571814589e-01
	-4.999630676121368e-07
	4.999630676121409e-07

 172	8.097999999999982e-05
	-1.000000000000000e+00
	-7.495154268475446e-05
	7.495154268475446e-01
	-4.999625242286575e-07
	4.999625242286576e-07

 173	8.147999999999982e-05
	-1.000000000000000e+00
	-7.603830847021334e-05
	7.603830847021334e-01
	-4.999619808457592e-07
	4.999619808457649e-07

 174	8.197999999999982e-05
	-1.000000000000000e+00
	-7.712507307452381e-05
	7.712507307452381e-01
	-4.999614374634559e-07
	4.999614374634627e-07

 175	8.247999999999982e-05
	-1.000000000000000e+00
	-7.821183649768716e-05
	7.821183649768716e-01
	-4.999608940817475e-07
	4.999608940817512e-07

 176	8.297999999999982e-05
	-1.000000000000000e+00
	-7.929859873970471e-05
	7.929859873970471e-01
	-4.999603507006341e-07
	4.999603507006301e-07

 177	8.347999999999982e-05
	-1.000000000000000e+00
	-8.038535980057769e-05
	8.038535980057769e-01
	-4.999598073201023e-07
	4.999598073200997e-07

 178	8.397999999999982e-05
	-1.000000000000000e+00
	-8.147211968030742e-05
	8.147211968030742e-01
	-4.999592639401524e-07
	4.999592639401598e-07

 179	8.447999999999981e-05
	-1.000000000000000e+00
	-8.255887837889514e-05
	8.255887837889514e-01
	-4.999587205608113e-07
	4.999587205608105e-07

 180	8.497999999999981e-05
	-1.000000000000000e+00
	-8.364563589634218e-05
	8.364563589634217e-01
	-4.999581771820523e-07
	4.999581771820518e-07

 181	8.547999999999981e-05
	-1.000000000000000e+00
	-8.473239223264979e-05
	8.473239223264979e-01
	-4.999576338038753e-07
	4.999576338038836e-07

 182	8.597999999999981e-05
	-1.000000000000000e+00
	-8.581914738781925e-05
	8.581914738781925e-01
	-4.999570904263076e-07
	4.999570904263060e-07

 183	8.647999999999981e-05
	-1.000000000000000e+00
	-8.690590136185191e-05
	8.690590136185191e-01
	-4.999565470493222e-07
	4.999565470493190e-07

 184	8.697999999999981e-05
	-1.000000000000000e+00
	-8.799265415474901e-05
	8.799265415474902e-01
	-4.999560036729193e-07
	4.999560036729226e-07

 185	8.747999999999981e-05
	-1.000000000000000e+00
	-8.907940576651179e-05
	8.907940576651179e-01
	-4.999554602971127e-07
	4.999554602971167e-07

 186	8.797999999999980e-05
	-1.000000000000000e+00
	-9.016615619714158e-05
	9.016615619714158e-01
	-4.999549169219021e-07
	4.999549169219014e-07

 187	8.847999999999980e-05
	-1.000000000000000e+00
	-9.125290544663968e-05
	9.125290544663968e-01
	-4.999543735472744e-07
	4.999543735472766e-07

 188	8.897999999999980e-05
	-1.000000000000000e+00
	-9.233965351500731e-05
	9.233965351500731e-01
	-4.999538301732431e-07
	4.999538301732425e-07

 189	8.947999999999980e-05
	-1.000000000000000e+00
	-9.342640040224581e-05
	9.342640040224580e-01
	-4.999532867997949e-07
	4.999532867997988e-07

 190	8.997999999999980e-05
	-1.000000000000000e+00
	-9.451314610835643e-05
	9.451314610835644e-01
	-4.999527434269434e-07
	4.999527434269458e-07

 191	9.047999999999980e-05
	-1.000000000000000e+00
	-9.559989063334051e-05
	9.559989063334050e-01
	-4.999522000546752e-07
	4.999522000546833e-07

 192	9.097999999999980e-05
	-1.000000000000000e+00
	-9.668663397719927e-05
	9.668663397719928e-01
	-4.999516566830040e-07
	4.999516566830114e-07

 193	9.147999999999979e-05
	-1.000000000000000e+00
	-9.777337613993402e-05
	9.777337613993402e-01
	-4.999511133119298e-07
	4.999511133119300e-07

 194	9.197999999999979e-05
	-1.000000000000000e+00
	-9.886011712154605e-05
	9.886011712154605e-01
	-4.999505699414528e-07
	4.999505699414392e-07

 195	9.247999999999979e-05
	-1.000000000000000e+00
	-9.994685692203666e-05
	9.994685692203666e-01
	-4.999500265715459e-07
	4.999500265715389e-07

 196	9.297999999999979e-05
	-1.000000000000000e+00
	-1.010335955414071e-04
	1.010335955414071e+00
	-4.999494832022365e-07
	4.999494832022292e-07

 197	9.347999999999979e-05
	-1.000000000000000e+00
	-1.021203329796587e-04
	1.021203329796587e+00
	-4.999489398335112e-07
	4.999489398335101e-07

 198	9.397999999999979e-05
	-1.000000000000000e+00
	-1.032070692367927e-04
	1.032070692367927e+00
	-4.999483964653834e-07
	4.999483964653816e-07

 199	9.447999999999979e-05
	-1.000000000000000e+00
	-1.042938043128103e-04
	1.042938043128103e+00
	-4.999478530978534e-07
	4.999478530978435e-07

 200	9.497999999999979e-05
	-1.000000000000000e+00
	-1.053805382077130e-04
	1.053805382077130e+00
	-4.999473097308942e-07
	4.999473097308961e-07

 201	9.547999999999978e-05
	-1.000000000000000e+00
	-1.064672709215018e-04
	1.064672709215018e+00
	-4.999467663645330e-07
	4.999467663645393e-07

 202	9.597999999999978e-05
	-1.000000000000000e+00
	-1.075540024541783e-04
	1.075540024541783e+00
	-4.999462229987699e-07
	4.999462229987729e-07

 203	9.647999999999978e-05
	-1.000000000000000e+00
	-1.086407328057435e-04
	1.086407328057435e+00
	-4.999456796335915e-07
	4.999456796335971e-07

 204	9.697999999999978e-05
	-1.000000000000000e+00